 Gaussian 09, Revision D.01,

 ---------------------------------------------------------
 # b3lyp/cc-pvdz opt=(tight, maxcycle=200) density=current
 ---------------------------------------------------------

 im1 opt of inital coordinates generqated with obabel, sorted as in cha
 rmm str file /site/raid1/florian/str/together/im1_h_oac.str
 ----------------------------------------------------------------------
 Symbolic Z-matrix:
 Charge =  0 Multiplicity = 1

 SCF Done:  E(RB3LYP) =  -265.539887088     A.U. after   14 cycles
 SCF Done:  E(RB3LYP) =  -265.541234605     A.U. after   11 cycles
 SCF Done:  E(RB3LYP) =  -265.541384368     A.U. after   10 cycles
 SCF Done:  E(RB3LYP) =  -265.541392873     A.U. after   10 cycles
 SCF Done:  E(RB3LYP) =  -265.541401444     A.U. after    8 cycles
 SCF Done:  E(RB3LYP) =  -265.541402177     A.U. after    7 cycles
 SCF Done:  E(RB3LYP) =  -265.541402977     A.U. after    7 cycles
 SCF Done:  E(RB3LYP) =  -265.541405323     A.U. after    8 cycles
 SCF Done:  E(RB3LYP) =  -265.541400056     A.U. after    9 cycles
 SCF Done:  E(RB3LYP) =  -265.517132777     A.U. after   13 cycles
 SCF Done:  E(RB3LYP) =  -265.542135206     A.U. after    9 cycles
 SCF Done:  E(RB3LYP) =  -265.542196286     A.U. after   10 cycles
 SCF Done:  E(RB3LYP) =  -265.542235258     A.U. after   10 cycles
 SCF Done:  E(RB3LYP) =  -265.542261703     A.U. after   10 cycles
 SCF Done:  E(RB3LYP) =  -265.542273442     A.U. after   10 cycles
 SCF Done:  E(RB3LYP) =  -265.542274156     A.U. after    7 cycles
 SCF Done:  E(RB3LYP) =  -265.542274262     A.U. after    7 cycles
 SCF Done:  E(RB3LYP) =  -265.542274264     A.U. after    5 cycles
 SCF Done:  E(RB3LYP) =  -265.542274264     A.U. after    4 cycles
 Optimization completed.
    -- Stationary point found.
 Normal termination of Gaussian 09 at Thu Nov 26 17:39:57 2020.
 Gaussian 09:  ES64L-G09RevD.01 24-Apr-2013

 ----------------------------------
 # b3lyp/cc-pvdz freq geom=allcheck
 ----------------------------------

 ----------------------------------------------------------------------
 im1 opt of inital coordinates generqated with obabel, sorted as in cha
 rmm str file /site/raid1/florian/str/together/im1_h_oac.str
 ----------------------------------------------------------------------
 Charge =  0 Multiplicity = 1

                         Standard orientation:
 ---------------------------------------------------------------------
 Center     Atomic      Atomic             Coordinates (Angstroms)
 Number     Number       Type             X           Y           Z
 ---------------------------------------------------------------------
      1          7           0        0.612182    0.017187    0.000001
      2          6           0       -0.200083   -1.085487    0.000000
      3          7           0       -1.479792   -0.769745    0.000000
      4          6           0       -1.503825    0.607283   -0.000001
      5          6           0       -0.224069    1.116727    0.000001
      6          6           0        2.062637    0.028746   -0.000001
      7          1           0        0.208272   -2.095171    0.000000
      8          1           0       -2.441641    1.159459    0.000001
      9          1           0        0.163903    2.131557   -0.000001
     10          1           0        2.453177    0.537759   -0.895475
     11          1           0        2.428427   -1.007060   -0.000002
     12          1           0        2.453175    0.537752    0.895477
 ---------------------------------------------------------------------

 SCF Done:  E(RB3LYP) =  -265.542274264     A.U. after   14 cycles

 The electronic state is 1-A.
 Alpha  occ. eigenvalues --  -14.38753 -14.30038 -10.24562 -10.23098 -10.20715
 Alpha  occ. eigenvalues --  -10.19208  -1.01322  -0.88189  -0.74800  -0.71452
 Alpha  occ. eigenvalues --   -0.59175  -0.57200  -0.53150  -0.47489  -0.45002
 Alpha  occ. eigenvalues --   -0.42689  -0.41218  -0.39457  -0.39454  -0.26621
 Alpha  occ. eigenvalues --   -0.26145  -0.22538
 Alpha virt. eigenvalues --    0.02351   0.05106   0.06847   0.08889   0.09515
 Alpha virt. eigenvalues --    0.12387   0.12832   0.13207   0.14614   0.22086
 Alpha virt. eigenvalues --    0.25185   0.29152   0.31361   0.39027   0.39515

 Mulliken charges:
               1
     1  N   -0.154910
     2  C    0.130855
     3  N   -0.209246
     4  C    0.029148
     5  C    0.027344
     6  C    0.075915
     7  H    0.003972
     8  H   -0.020911
     9  H   -0.012126
    10  H    0.045809
    11  H    0.038342
    12  H    0.045808
 Sum of Mulliken charges =   0.00000

 Dipole moment (field-independent basis, Debye):
    X=              3.7764    Y=              1.0763    Z=              0.0000  Tot=              3.9268
 Quadrupole moment (field-independent basis, Debye-Ang):
   XX=            -34.6245   YY=            -33.2880   ZZ=            -37.3566
   XY=             -3.5506   XZ=              0.0000   YZ=              0.0000

  Exact polarizability:  66.030  -1.323  58.024   0.000   0.000  29.825
 Approx polarizability:  99.905   2.317  92.939   0.000   0.000  44.177

                      1                      2                      3
                      A                      A                      A
 Frequencies --     78.1889               209.3893               347.3019
 Red. masses --      1.1277                 2.8714                 2.6594
 Frc consts  --      0.0041                 0.0742                 0.1890
 IR Inten    --      0.1060                 0.7630                 0.4870

                      4                      5                      6
                      A                      A                      A
 Frequencies --    622.2641               673.5623               679.1262
 Red. masses --      3.2981                 3.7453                 4.3044
 Frc consts  --      0.7524                 1.0011                 1.1697
 IR Inten    --      4.0397                11.4513                 4.0456

                      7                      8                      9
                      A                      A                      A
 Frequencies --    721.0852               805.3809               859.1789
 Red. masses --      1.2465                 1.3504                 1.3497
 Frc consts  --      0.3819                 0.5161                 0.5870
 IR Inten    --     21.2055                26.6464                 1.7422

                     10                     11                     12
                      A                      A                      A
 Frequencies --    913.1328              1041.5763              1066.4214
 Red. masses --      6.0669                 3.1299                 1.5606
 Frc consts  --      2.9805                 2.0006                 1.0457
 IR Inten    --     11.5690                10.0502                12.8888

                     13                     14                     15
                      A                      A                      A
 Frequencies --   1082.8643              1131.5317              1140.7692
 Red. masses --      1.2646                 1.3165                 2.0448
 Frc consts  --      0.8737                 0.9931                 1.5678
 IR Inten    --     10.7883                 0.0006                15.0934

                     16                     17                     18
                      A                      A                      A
 Frequencies --   1254.1763              1302.9764              1381.9813
 Red. masses --      1.3931                 2.6239                 4.1032
 Frc consts  --      1.2911                 2.6246                 4.6171
 IR Inten    --      8.7162                29.9181                 2.5776

                     19                     20                     21
                      A                      A                      A
 Frequencies --   1401.5616              1434.7511              1454.8737
 Red. masses --      6.1208                 1.2658                 1.0372
 Frc consts  --      7.0841                 1.5352                 1.2935
 IR Inten    --      1.3456                18.8554                 7.7980

                     22                     23                     24
                      A                      A                      A
 Frequencies --   1489.7328              1541.9275              1542.6979
 Red. masses --      1.1756                 3.5165                 3.7114
 Frc consts  --      1.5372                 4.9259                 5.2041
 IR Inten    --      8.2632                62.5749                 2.1986

                     25                     26                     27
                      A                      A                      A
 Frequencies --   3036.3598              3102.3012              3140.5106
 Red. masses --      1.0350                 1.1057                 1.1021
 Frc consts  --      5.6223                 6.2698                 6.4046
 IR Inten    --     48.7477                18.0787                 7.8183

                     28                     29                     30
                      A                      A                      A
 Frequencies --   3235.2281              3237.6296              3268.5348
 Red. masses --      1.0949                 1.0933                 1.1053
 Frc consts  --      6.7521                 6.7522                 6.9570
 IR Inten    --      5.1688                 2.5868                 2.3751

 - Thermochemistry -
 -------------------
 Temperature   298.150 Kelvin.  Pressure   1.00000 Atm.
 Atom     1 has atomic number  7 and mass  14.00307

 Molecular mass:    82.05310 amu.
 Principal axes and moments of inertia in atomic units:
                           1         2         3
     Eigenvalues --   197.55126 502.45981 688.46720
           X            0.99953  -0.03079   0.00000
           Y            0.03079   0.99953   0.00000
           Z            0.00000   0.00000   1.00000
 This molecule is an asymmetric top.
 Rotational symmetry number  1.
 Rotational temperatures (Kelvin)      0.43844     0.17238     0.12581
 Rotational constants (GHZ):           9.13556     3.59181     2.62139
 Zero-point vibrational energy     258375.5 (Joules/Mol)
                                   61.75323 (Kcal/Mol)
 Warning -- explicit consideration of   3 degrees of freedom as
           vibrations may cause significant error
 Vibrational temperatures:    112.50   301.26   499.69   895.30   969.10
          (Kelvin)            977.11  1037.48  1158.76  1236.17  1313.79
                             1498.59  1534.34  1558.00  1628.02  1641.31
                             1804.48  1874.69  1988.36  2016.53  2064.28
                             2093.24  2143.39  2218.49  2219.60  4368.64
                             4463.51  4518.49  4654.77  4658.22  4702.69

 Zero-point correction=                           0.098410 (Hartree/Particle)
 Thermal correction to Energy=                    0.103815
 Thermal correction to Enthalpy=                  0.104759
 Thermal correction to Gibbs Free Energy=         0.069424
 Sum of electronic and zero-point Energies=           -265.443864
 Sum of electronic and thermal Energies=              -265.438460
 Sum of electronic and thermal Enthalpies=            -265.437516
 Sum of electronic and thermal Free Energies=         -265.472850

                     E (Thermal)             CV                S
                      KCal/Mol        Cal/Mol-Kelvin    Cal/Mol-Kelvin
 Total                   65.145             18.905             74.369
 Electronic               0.000              0.000              0.000
 Translational            0.889              2.981             39.128
 Rotational               0.889              2.981             25.727
 Vibrational             63.367             12.943              9.513
 Vibration     1          0.599              1.964              3.936
 Vibration     2          0.642              1.826              2.049
 Vibration     3          0.725              1.581              1.178

 Optimization completed.
    -- Stationary point found.
 Normal termination of Gaussian 09 at Thu Nov 26 17:40:46 2020.
