 Gaussian 09, Revision D.01,

 -------------------------------------------------------------------
 # b3lyp/cc-pvdz opt=(maxcycle=200) pop=(mk, dipole) density=current
 -------------------------------------------------------------------

 --------------------------
 initial opt of coordinates
 --------------------------
 Symbolic Z-matrix:
 Charge = -1 Multiplicity = 1

 SCF Done:  E(RB3LYP) =  -961.517582499     A.U. after   14 cycles
 SCF Done:  E(RB3LYP) =  -961.521716436     A.U. after   13 cycles
 SCF Done:  E(RB3LYP) =  -961.524939065     A.U. after   12 cycles
 SCF Done:  E(RB3LYP) =  -961.524966976     A.U. after    9 cycles
 SCF Done:  E(RB3LYP) =  -961.524968266     A.U. after    8 cycles
 SCF Done:  E(RB3LYP) =  -961.524967311     A.U. after    7 cycles
 SCF Done:  E(RB3LYP) =  -961.524968508     A.U. after    7 cycles
 SCF Done:  E(RB3LYP) =  -961.524964776     A.U. after    7 cycles
 Optimization completed.
    -- Stationary point found.

 ESP charges:
               1
     1  C    0.310762
     2  F   -0.168787
     3  F   -0.169702
     4  F   -0.170362
     5  S    0.912351
     6  O   -0.572081
     7  O   -0.571504
     8  O   -0.570678
 Sum of ESP charges =  -1.00000

 Normal termination of Gaussian 09 at Wed Jan 27 15:18:53 2021.
 Gaussian 09:  ES64L-G09RevD.01 24-Apr-2013

 --------------------------------------------------------
 # b3lyp/cc-pvdz freq scf=tight geom=allcheck iop(7/33=1)
 --------------------------------------------------------

 Structure from the checkpoint file:  "otf.chk"
 --------------------------
 initial opt of coordinates
 --------------------------
 Charge = -1 Multiplicity = 1

                         Standard orientation:
 ---------------------------------------------------------------------
 Center     Atomic      Atomic             Coordinates (Angstroms)
 Number     Number       Type             X           Y           Z
 ---------------------------------------------------------------------
      1          6           0        0.953268   -0.000080    0.000068
      2          9           0        1.464913    0.342532   -1.208378
      3          9           0        1.464649    0.875152    0.901123
      4          9           0        1.464379   -1.218095    0.307604
      5         16           0       -0.944497    0.000072   -0.000064
      6          8           0       -1.255918    1.419155   -0.357301
      7          8           0       -1.256432   -1.018739   -1.050348
      8          8           0       -1.256791   -0.400038    1.407334
 ---------------------------------------------------------------------

 SCF Done:  E(RB3LYP) =  -961.524964776     A.U. after   14 cycles

 The electronic state is 1-A.
 Alpha  occ. eigenvalues --  -88.91916 -24.57353 -24.57351 -24.57350 -18.93026
 Alpha  occ. eigenvalues --  -18.93025 -18.93024 -10.25961  -7.94812  -5.91141
 Alpha  occ. eigenvalues --   -5.91104  -5.91104  -1.15244  -1.06642  -1.06639
 Alpha  occ. eigenvalues --   -0.91911  -0.78670  -0.78669  -0.55753  -0.46098
 Alpha  occ. eigenvalues --   -0.42897  -0.42897  -0.36053  -0.30975  -0.30974
 Alpha  occ. eigenvalues --   -0.27441  -0.27441  -0.27431  -0.25831  -0.25831
 Alpha  occ. eigenvalues --   -0.25099  -0.14136  -0.14135  -0.11281  -0.11281
 Alpha  occ. eigenvalues --   -0.10590  -0.06921
 Alpha virt. eigenvalues --    0.25834   0.27447   0.27453   0.27674   0.35609
 Alpha virt. eigenvalues --    0.41309   0.41310   0.56391   0.62960   0.63446
 Alpha virt. eigenvalues --    0.63450   0.70216   0.70219   0.77553   0.81781

 Mulliken charges:
               1
     1  C    0.307476
     2  F   -0.191967
     3  F   -0.191966
     4  F   -0.191939
     5  S    0.901390
     6  O   -0.544331
     7  O   -0.544372
     8  O   -0.544291
 Sum of Mulliken charges =  -1.00000

 Dipole moment (field-independent basis, Debye):
    X=              4.0491    Y=             -0.0007    Z=              0.0007  Tot=              4.0491
 Quadrupole moment (field-independent basis, Debye-Ang):
   XX=            -59.4169   YY=            -57.8441   ZZ=            -57.8427
   XY=             -0.0012   XZ=              0.0011   YZ=             -0.0003

  Exact polarizability:  36.240   0.003  35.734  -0.003  -0.001  35.733
 Approx polarizability:  48.074   0.009  62.467  -0.008   0.000  62.464

                      1                      2                      3
                      A                      A                      A
 Frequencies --     46.0950               178.8083               179.9278
 Red. masses --     17.4674                17.2462                17.2387
 Frc consts  --      0.0219                 0.3249                 0.3288
 IR Inten    --      0.0000                 1.3738                 1.3827

                      4                      5                      6
                      A                      A                      A
 Frequencies --    267.2597               319.2757               320.0342
 Red. masses --     18.1326                17.4941                17.4987
 Frc consts  --      0.7631                 1.0507                 1.0560
 IR Inten    --      0.2360                 0.1331                 0.1409

                      7                      8                      9
                      A                      A                      A
 Frequencies --    483.9252               484.6179               543.5194
 Red. masses --     17.7860                17.7866                18.1434
 Frc consts  --      2.4541                 2.4612                 3.1579
 IR Inten    --     18.6553                18.7653                 5.2644

                     10                     11                     12
                      A                      A                      A
 Frequencies --    544.2356               600.2250               721.3285
 Red. masses --     18.1426                21.4143                18.2448
 Frc consts  --      3.1661                 4.5455                 5.5931
 IR Inten    --      5.1422               181.8871                 3.7045

                     13                     14                     15
                      A                      A                      A
 Frequencies --    962.9171              1143.8305              1144.3157
 Red. masses --     16.4307                13.3664                13.3673
 Frc consts  --      8.9760                10.3036                10.3130
 IR Inten    --    159.8091               144.4827               143.9426

                     16                     17                     18
                      A                      A                      A
 Frequencies --   1187.2140              1219.1833              1219.3170
 Red. masses --     13.5695                20.1813                20.1755
 Frc consts  --     11.2686                17.6741                17.6729
 IR Inten    --    107.2071               372.5099               372.8371

 - Thermochemistry -
 -------------------
 Temperature   298.150 Kelvin.  Pressure   1.00000 Atm.
 Atom     1 has atomic number  6 and mass  12.00000

 Molecular mass:   148.95203 amu.
 Principal axes and moments of inertia in atomic units:
                           1         2         3
     Eigenvalues --   688.056421191.437521191.46969
           X            1.00000   0.00000   0.00000
           Y            0.00000   1.00000  -0.00228
           Z            0.00000   0.00228   1.00000
 This molecule is an asymmetric top.
 Rotational symmetry number  1.
 Warning -- assumption of classical behavior for rotation
           may cause significant error
 Rotational temperatures (Kelvin)      0.12588     0.07270     0.07269
 Rotational constants (GHZ):           2.62296     1.51476     1.51472
 Zero-point vibrational energy      69180.2 (Joules/Mol)
                                   16.53447 (Kcal/Mol)
 Warning -- explicit consideration of  11 degrees of freedom as
           vibrations may cause significant error
 Vibrational temperatures:     66.32   257.26   258.88   384.53   459.37
          (Kelvin)            460.46   696.26   697.26   782.00   783.03
                              863.59  1037.83  1385.42  1645.71  1646.41
                             1708.13  1754.13  1754.32

 Zero-point correction=                           0.026349 (Hartree/Particle)
 Thermal correction to Energy=                    0.033724
 Thermal correction to Enthalpy=                  0.034668
 Thermal correction to Gibbs Free Energy=        -0.006543
 Sum of electronic and zero-point Energies=           -961.498615
 Sum of electronic and thermal Energies=              -961.491241
 Sum of electronic and thermal Enthalpies=            -961.490297
 Sum of electronic and thermal Free Energies=         -961.531508

                     E (Thermal)             CV                S
                      KCal/Mol        Cal/Mol-Kelvin    Cal/Mol-Kelvin
 Total                   21.162             24.884             86.737
 Electronic               0.000              0.000              0.000
 Translational            0.889              2.981             40.906
 Rotational               0.889              2.981             28.370
 Vibrational             19.385             18.923             17.461
 Vibration     1          0.595              1.979              4.978
 Vibration     2          0.629              1.868              2.341
 Vibration     3          0.629              1.867              2.329
 Vibration     4          0.672              1.733              1.614
 Vibration     5          0.705              1.637              1.314
 Vibration     6          0.706              1.635              1.310
 Vibration     7          0.840              1.286              0.700
 Vibration     8          0.841              1.284              0.698
 Vibration     9          0.899              1.154              0.558
 Vibration    10          0.899              1.152              0.556
 Vibration    11          0.958              1.031              0.449

 Optimization completed.
    -- Stationary point found.
 Normal termination of Gaussian 09 at Wed Jan 27 15:19:25 2021.
