 Gaussian 09, Revision D.01,

 ---------------------------------------------------------
 # b3lyp/cc-pvdz opt=(tight, maxcycle=200) density=current
 ---------------------------------------------------------

 ------------------
 opt of hoac coords
 ------------------
 Symbolic Z-matrix:
 Charge =  0 Multiplicity = 1

 SCF Done:  E(RB3LYP) =  -229.069579844     A.U. after   14 cycles
 SCF Done:  E(RB3LYP) =  -229.088300177     A.U. after   13 cycles
 SCF Done:  E(RB3LYP) =  -229.090587343     A.U. after   12 cycles
 SCF Done:  E(RB3LYP) =  -229.090849924     A.U. after   11 cycles
 SCF Done:  E(RB3LYP) =  -229.090865095     A.U. after    9 cycles
 SCF Done:  E(RB3LYP) =  -229.090865276     A.U. after    7 cycles
 SCF Done:  E(RB3LYP) =  -229.090865292     A.U. after    6 cycles
 SCF Done:  E(RB3LYP) =  -229.090865293     A.U. after    6 cycles
 SCF Done:  E(RB3LYP) =  -229.090865292     A.U. after    6 cycles
 Optimization completed.
    -- Stationary point found.
 Normal termination of Gaussian 09 at Thu Nov 19 17:05:36 2020.
 Gaussian 09:  ES64L-G09RevD.01 24-Apr-2013

 ----------------------------------
 # b3lyp/cc-pvdz freq geom=allcheck
 ----------------------------------

 Structure from the checkpoint file:  "hoac.chk"
 ------------------
 opt of hoac coords
 ------------------
 Charge =  0 Multiplicity = 1

                         Standard orientation:
 ---------------------------------------------------------------------
 Center     Atomic      Atomic             Coordinates (Angstroms)
 Number     Number       Type             X           Y           Z
 ---------------------------------------------------------------------
      1          6           0        1.374399   -0.037082    0.000000
      2          1           0        1.855764    0.948026    0.000000
      3          1           0        1.698596   -0.600761   -0.890925
      4          1           0        1.698596   -0.600760    0.890926
      5          6           0       -0.133001    0.138666    0.000000
      6          8           0       -0.701580    1.197544    0.000000
      7          8           0       -0.854493   -1.019535    0.000000
      8          1           0       -0.252764   -1.780086    0.000000
 ---------------------------------------------------------------------

 SCF Done:  E(RB3LYP) =  -229.090865292     A.U. after   13 cycles

 The electronic state is 1-A.
 Alpha  occ. eigenvalues --  -19.18634 -19.12518 -10.31970 -10.21434  -1.09975
 Alpha  occ. eigenvalues --   -1.01959  -0.75715  -0.61426  -0.51649  -0.47081
 Alpha  occ. eigenvalues --   -0.46322  -0.41939  -0.39729  -0.37703  -0.31658
 Alpha  occ. eigenvalues --   -0.27231
 Alpha virt. eigenvalues --    0.00841   0.02590   0.08630   0.11562   0.12044
 Alpha virt. eigenvalues --    0.18778   0.28726   0.31195   0.42482   0.46466
 Alpha virt. eigenvalues --    0.48820   0.49838   0.52050   0.54908   0.60892

 Mulliken charges:
               1
     1  C   -0.046068
     2  H    0.054172
     3  H    0.050200
     4  H    0.050200
     5  C    0.105111
     6  O   -0.207119
     7  O   -0.148729
     8  H    0.142234
 Sum of Mulliken charges =   0.00000

 Dipole moment (field-independent basis, Debye):
    X=              3.0290    Y=             -2.8154    Z=              0.0000  Tot=              4.1354
 Quadrupole moment (field-independent basis, Debye-Ang):
   XX=            -24.9082   YY=            -22.5830   ZZ=            -22.7533
   XY=              0.4548   XZ=              0.0000   YZ=              0.0000

  Exact polarizability:  28.949  -1.935  33.163   0.000   0.000  19.669
 Approx polarizability:  37.691  -5.568  53.203   0.000   0.000  26.787

                      1                      2                      3
                      A                      A                      A
 Frequencies --    116.7178               425.0038               464.1213
 Red. masses --      1.0735                 2.6267                 1.2157
 Frc consts  --      0.0086                 0.2795                 0.1543
 IR Inten    --      0.0495                 4.0856                94.4047

                      4                      5                      6
                      A                      A                      A
 Frequencies --    594.8670               597.1766               864.0633
 Red. masses --      2.0820                 5.6209                 5.7043
 Frc consts  --      0.4341                 1.1810                 2.5092
 IR Inten    --      2.0787                 6.8220                22.1046

                      7                      8                      9
                      A                      A                      A
 Frequencies --    979.6132              1045.6299              1207.7242
 Red. masses --      1.5044                 1.8381                 1.6818
 Frc consts  --      0.8506                 1.1841                 1.4453
 IR Inten    --      7.6814                 5.1062                 3.8307

                     10                     11                     12
                      A                      A                      A
 Frequencies --   1308.1129              1376.3175              1442.3229
 Red. masses --      1.8616                 1.5214                 1.0514
 Frc consts  --      1.8768                 1.6980                 1.2887
 IR Inten    --    327.9095                99.8885                 4.8901

                     13                     14                     15
                      A                      A                      A
 Frequencies --   1456.7373              1878.1105              3035.5845
 Red. masses --      1.0439                10.0288                 1.0390
 Frc consts  --      1.3052                20.8421                 5.6409
 IR Inten    --      8.3408               260.2759                 4.4693

                     16                     17                     18
                      A                      A                      A
 Frequencies --   3102.6388              3166.4380              3764.1773
 Red. masses --      1.1007                 1.1011                 1.0660
 Frc consts  --      6.2428                 6.5044                 8.8989
 IR Inten    --      8.2641                 3.3780                36.8314

 - Thermochemistry -
 -------------------
 Temperature   298.150 Kelvin.  Pressure   1.00000 Atm.
 Atom     1 has atomic number  6 and mass  12.00000

 Molecular mass:    60.02113 amu.
 Principal axes and moments of inertia in atomic units:
                           1         2         3
     Eigenvalues --   164.87817 189.17243 342.62378
           X            1.00000   0.00011   0.00000
           Y           -0.00011   1.00000   0.00000
           Z            0.00000   0.00000   1.00000
 This molecule is an asymmetric top.
 Rotational symmetry number  1.
 Rotational temperatures (Kelvin)      0.52532     0.45786     0.25280
 Rotational constants (GHZ):          10.94591     9.54019     5.26741
 Zero-point vibrational energy     160451.3 (Joules/Mol)
                                   38.34877 (Kcal/Mol)
 Warning -- explicit consideration of   5 degrees of freedom as
           vibrations may cause significant error
 Vibrational temperatures:    167.93   611.48   667.77   855.88   859.20
          (Kelvin)           1243.19  1409.44  1504.43  1737.64  1882.08
                             1980.21  2075.18  2095.92  2702.18  4367.52
                             4464.00  4555.79  5415.80

 Zero-point correction=                           0.061113 (Hartree/Particle)
 Thermal correction to Energy=                    0.065691
 Thermal correction to Enthalpy=                  0.066636
 Thermal correction to Gibbs Free Energy=         0.034215
 Sum of electronic and zero-point Energies=           -229.029753
 Sum of electronic and thermal Energies=              -229.025174
 Sum of electronic and thermal Enthalpies=            -229.024230
 Sum of electronic and thermal Free Energies=         -229.056650

                     E (Thermal)             CV                S
                      KCal/Mol        Cal/Mol-Kelvin    Cal/Mol-Kelvin
 Total                   41.222             14.661             68.235
 Electronic               0.000              0.000              0.000
 Translational            0.889              2.981             38.196
 Rotational               0.889              2.981             23.884
 Vibrational             39.445              8.699              6.155
 Vibration     1          0.608              1.935              3.154
 Vibration     2          0.787              1.416              0.875
 Vibration     3          0.822              1.330              0.754
 Vibration     4          0.953              1.043              0.459
 Vibration     5          0.955              1.038              0.455

 Optimization completed.
    -- Stationary point found.
 Normal termination of Gaussian 09 at Thu Nov 19 17:05:51 2020.
