 Gaussian 09, Revision D.01,
 Gaussian 09:  ES64L-G09RevD.01 24-Apr-2013

 -------------------------------------
 #b3lyp/aug-cc-pvdz GEOM=ALLCHECK FREQ
 -------------------------------------

 Structure from the checkpoint file:  "im21_b3lyp_opt.chk"
 -----------------------------------
 IM21 OPTIMIZED AT B3LYP/AUG-CC-PVDZ
 -----------------------------------
 Charge =  1 Multiplicity = 1

                         Standard orientation:
 ---------------------------------------------------------------------
 Center     Atomic      Atomic             Coordinates (Angstroms)
 Number     Number       Type             X           Y           Z
 ---------------------------------------------------------------------
      1          6           0       -2.640414   -1.081649    0.000000
      2          1           0       -3.234044   -0.877017    0.897516
      3          1           0       -2.326691   -2.129093   -0.000175
      4          1           0       -3.234227   -0.876786   -0.897344
      5          7           0       -1.445182   -0.226916   -0.000014
      6          6           0       -0.175143   -0.655596   -0.000039
      7          1           0        0.131021   -1.692456   -0.000034
      8          7           0        0.641205    0.406076   -0.000011
      9          6           0       -1.442066    1.154912    0.000029
     10          1           0       -2.356728    1.735205    0.000074
     11          6           0       -0.134511    1.550858    0.000034
     12          1           0        0.301824    2.542303    0.000013
     13          6           0        2.127842    0.396484   -0.000067
     14          1           0        2.442236    0.958057   -0.888389
     15          1           0        2.442281    0.958247    0.888117
     16          6           0        2.723807   -1.002443    0.000064
     17          1           0        3.816153   -0.907516    0.000021
     18          1           0        2.444440   -1.570320   -0.897423
     19          1           0        2.444483   -1.570140    0.897675
 ---------------------------------------------------------------------

 SCF Done:  E(RB3LYP) =  -344.580311527     A.U. after   13 cycles

 The electronic state is 1-A.
 Alpha  occ. eigenvalues --  -14.59297 -14.59017 -10.45180 -10.40481 -10.40383
 Alpha  occ. eigenvalues --  -10.39803 -10.39571 -10.33689  -1.24179  -1.12474
 Alpha  occ. eigenvalues --   -0.97342  -0.94057  -0.89998  -0.82077  -0.81002
 Alpha  occ. eigenvalues --   -0.76974  -0.71737  -0.67376  -0.64230  -0.64009
 Alpha  occ. eigenvalues --   -0.63415  -0.63179  -0.61714  -0.57880  -0.57347
 Alpha  occ. eigenvalues --   -0.54675  -0.53360  -0.52551  -0.47094  -0.43523
 Alpha virt. eigenvalues --   -0.18950  -0.16090  -0.13917  -0.12165  -0.11459
 Alpha virt. eigenvalues --   -0.10509  -0.09473  -0.09192  -0.09100  -0.07822
 Alpha virt. eigenvalues --   -0.07301  -0.06675  -0.06252  -0.05786  -0.05442

 Mulliken charges:
               1
     1  C    1.308271
     2  H   -0.168071
     3  H   -0.347574
     4  H   -0.168104
     5  N   -0.142509
     6  C    0.262346
     7  H   -0.577339
     8  N   -0.013034
     9  C    0.803388
    10  H   -0.576660
    11  C    0.692652
    12  H   -0.578788
    13  C    1.187732
    14  H   -0.435006
    15  H   -0.435054
    16  C    0.893401
    17  H   -0.407403
    18  H   -0.149107
    19  H   -0.149142
 Sum of Mulliken charges =   1.00000

 Dipole moment (field-independent basis, Debye):
    X=             -1.0378    Y=             -0.2993    Z=             -0.0001  Tot=              1.0801
 Quadrupole moment (field-independent basis, Debye-Ang):
   XX=            -21.8623   YY=            -35.4978   ZZ=            -47.8867
   XY=              2.0662   XZ=             -0.0003   YZ=              0.0001

  Exact polarizability: 102.656   1.099  83.516  -0.001   0.001  56.238
 Approx polarizability: 138.546   2.754 128.729  -0.001   0.001  85.389

                      1                      2                      3
                      A                      A                      A
 Frequencies --     33.3729                69.1143               171.3309
 Red. masses --      2.0417                 1.0991                 2.2583
 Frc consts  --      0.0013                 0.0031                 0.0391
 IR Inten    --      0.3290                 0.2235                 3.3959

                      4                      5                      6
                      A                      A                      A
 Frequencies --    188.8404               249.5452               302.4245
 Red. masses --      2.9789                 2.5096                 1.2935
 Frc consts  --      0.0626                 0.0921                 0.0697
 IR Inten    --      0.5782                 0.6315                 0.1734

                      7                      8                      9
                      A                      A                      A
 Frequencies --    355.9015               447.4100               592.0707
 Red. masses --      2.8158                 3.2656                 3.5244
 Frc consts  --      0.2101                 0.3851                 0.7279
 IR Inten    --      0.5075                 0.7661                 1.2456

                     10                     11                     12
                      A                      A                      A
 Frequencies --    632.4474               639.0705               707.8141
 Red. masses --      3.1732                 2.8703                 3.7277
 Frc consts  --      0.7478                 0.6907                 1.1004
 IR Inten    --      0.2162                20.8189                 6.6420

                     13                     14                     15
                      A                      A                      A
 Frequencies --    761.8099               799.7754               845.9924
 Red. masses --      1.2441                 1.1253                 1.3994
 Frc consts  --      0.4254                 0.4241                 0.5901
 IR Inten    --     27.8529                 0.2777                38.0468

                     16                     17                     18
                      A                      A                      A
 Frequencies --    873.8470               972.7784              1036.0945
 Red. masses --      1.3876                 2.0756                 3.1653
 Frc consts  --      0.6243                 1.1573                 2.0020
 IR Inten    --      0.0616                 1.6958                 1.0922

                     19                     20                     21
                      A                      A                      A
 Frequencies --   1050.7400              1094.6616              1102.7493
 Red. masses --      3.1856                 1.5893                 1.8826
 Frc consts  --      2.0722                 1.1221                 1.3488
 IR Inten    --      0.6231                 4.9136                 0.4266

                     22                     23                     24
                      A                      A                      A
 Frequencies --   1123.3193              1142.0277              1155.8228
 Red. masses --      1.3223                 1.3359                 1.5528
 Frc consts  --      0.9831                 1.0265                 1.2222
 IR Inten    --     10.9035                 0.1576                 1.1989

                     25                     26                     27
                      A                      A                      A
 Frequencies --   1171.7329              1277.7893              1308.7247
 Red. masses --      1.7814                 1.3539                 1.0928
 Frc consts  --      1.4410                 1.3024                 1.1028
 IR Inten    --     96.8484                 7.6718                 1.5325

                     28                     29                     30
                      A                      A                      A
 Frequencies --   1330.1624              1355.3805              1401.5184
 Red. masses --      3.0244                 2.4476                 1.3764
 Frc consts  --      3.1528                 2.6491                 1.5929
 IR Inten    --     13.7968                21.9164                 5.4886

                     31                     32                     33
                      A                      A                      A
 Frequencies --   1412.0938              1434.1858              1449.6366
 Red. masses --      2.7538                 1.8506                 1.4314
 Frc consts  --      3.2353                 2.2427                 1.7723
 IR Inten    --      8.0165                 9.9179                 0.9095

                     34                     35                     36
                      A                      A                      A
 Frequencies --   1461.7423              1475.2455              1479.5516
 Red. masses --      1.0358                 1.0364                 1.0616
 Frc consts  --      1.3039                 1.3289                 1.3692
 IR Inten    --     14.4024                11.1226                 2.7622

                     37                     38                     39
                      A                      A                      A
 Frequencies --   1489.8476              1491.9794              1602.8798
 Red. masses --      1.1242                 1.2224                 3.8109
 Frc consts  --      1.4702                 1.6032                 5.7687
 IR Inten    --      1.2149                10.2775                57.4026

                     40                     41                     42
                      A                      A                      A
 Frequencies --   1607.0846              3047.7546              3072.6358
 Red. masses --      3.9312                 1.0380                 1.0324
 Frc consts  --      5.9820                 5.6806                 5.7427
 IR Inten    --     12.9975                 4.2172                 3.3112

                     43                     44                     45
                      A                      A                      A
 Frequencies --   3077.6803              3113.9853              3134.9898
 Red. masses --      1.0588                 1.1055                 1.1072
 Frc consts  --      5.9089                 6.3162                 6.4116
 IR Inten    --      4.6540                 2.1873                 7.2302

                     46                     47                     48
                      A                      A                      A
 Frequencies --   3138.6822              3158.6861              3176.1755
 Red. masses --      1.0997                 1.1074                 1.1065
 Frc consts  --      6.3827                 6.5099                 6.5765
 IR Inten    --      2.9302                 0.1720                 0.3627

                     49                     50                     51
                      A                      A                      A
 Frequencies --   3281.9693              3299.3685              3306.8657
 Red. masses --      1.0939                 1.1083                 1.1041
 Frc consts  --      6.9425                 7.1085                 7.1138
 IR Inten    --     16.8767                28.9429                12.6530

 - Thermochemistry -
 -------------------
 Temperature   298.150 Kelvin.  Pressure   1.00000 Atm.
 Atom     1 has atomic number  6 and mass  12.00000

 Molecular mass:   111.09222 amu.
 Principal axes and moments of inertia in atomic units:
                           1         2         3
     Eigenvalues --   399.874891297.445141662.77001
           X            1.00000   0.00210   0.00000
           Y           -0.00210   1.00000   0.00000
           Z            0.00000   0.00000   1.00000
 This molecule is an asymmetric top.
 Rotational symmetry number  1.
 Rotational temperatures (Kelvin)      0.21660     0.06676     0.05209
 Rotational constants (GHZ):           4.51326     1.39100     1.08538
 Zero-point vibrational energy     442063.9 (Joules/Mol)
                                  105.65580 (Kcal/Mol)
 Warning -- explicit consideration of   9 degrees of freedom as
           vibrations may cause significant error
 Vibrational temperatures:     48.02    99.44   246.51   271.70   359.04
          (Kelvin)            435.12   512.06   643.72   851.86   909.95
                              919.48  1018.39  1096.07  1150.70  1217.19
                             1257.27  1399.61  1490.71  1511.78  1574.97
                             1586.61  1616.20  1643.12  1662.97  1685.86
                             1838.45  1882.96  1913.80  1950.09  2016.47
                             2031.69  2063.47  2085.70  2103.12  2122.55
                             2128.74  2143.56  2146.62  2306.18  2312.23
                             4385.03  4420.83  4428.09  4480.32  4510.55
                             4515.86  4544.64  4569.80  4722.02  4747.05
                             4757.84

 Zero-point correction=                           0.168373 (Hartree/Particle)
 Thermal correction to Energy=                    0.176771
 Thermal correction to Enthalpy=                  0.177715
 Thermal correction to Gibbs Free Energy=         0.134490
 Sum of electronic and zero-point Energies=           -344.411938
 Sum of electronic and thermal Energies=              -344.403541
 Sum of electronic and thermal Enthalpies=            -344.402596
 Sum of electronic and thermal Free Energies=         -344.445822

                     E (Thermal)             CV                S
                      KCal/Mol        Cal/Mol-Kelvin    Cal/Mol-Kelvin
 Total                  110.925             30.325             90.975
 Electronic               0.000              0.000              0.000
 Translational            0.889              2.981             40.032
 Rotational               0.889              2.981             28.247
 Vibrational            109.148             24.363             22.697
 Vibration     1          0.594              1.983              5.618
 Vibration     2          0.598              1.969              4.178
 Vibration     3          0.626              1.878              2.421
 Vibration     4          0.633              1.855              2.239
 Vibration     5          0.662              1.764              1.734
 Vibration     6          0.694              1.669              1.403
 Vibration     7          0.731              1.563              1.140
 Vibration     8          0.807              1.367              0.804
 Vibration     9          0.950              1.049              0.463

 Optimization completed.
    -- Stationary point found.
 Normal termination of Gaussian 09 at Wed Feb  3 07:25:16 2021.
