 Gaussian 09, Revision D.01,

 -------------------------------------------------------------
 # b3lyp/cc-pvdz opt=(verytight, maxcycle=200) density=current
 -------------------------------------------------------------

 --------------------------
 initial opt of coordinates
 --------------------------
 Symbolic Z-matrix:
 Charge = -1 Multiplicity = 1

 SCF Done:  E(RB3LYP) =  -228.501074690     A.U. after   14 cycles
 SCF Done:  E(RB3LYP) =  -228.512333201     A.U. after   13 cycles
 SCF Done:  E(RB3LYP) =  -228.500948919     A.U. after   14 cycles
 SCF Done:  E(RB3LYP) =  -228.512531581     A.U. after   10 cycles
 SCF Done:  E(RB3LYP) =  -228.512695976     A.U. after   12 cycles
 SCF Done:  E(RB3LYP) =  -228.513211814     A.U. after   12 cycles
 SCF Done:  E(RB3LYP) =  -228.513213687     A.U. after    8 cycles
 SCF Done:  E(RB3LYP) =  -228.513213799     A.U. after    7 cycles
 SCF Done:  E(RB3LYP) =  -228.513213809     A.U. after    6 cycles
 SCF Done:  E(RB3LYP) =  -228.513213809     A.U. after    5 cycles
 SCF Done:  E(RB3LYP) =  -228.513246895     A.U. after   12 cycles
 SCF Done:  E(RB3LYP) =  -228.513247873     A.U. after   11 cycles
 SCF Done:  E(RB3LYP) =  -228.513248518     A.U. after   10 cycles
 SCF Done:  E(RB3LYP) =  -228.513248663     A.U. after    9 cycles
 SCF Done:  E(RB3LYP) =  -228.513248624     A.U. after    7 cycles
 SCF Done:  E(RB3LYP) =  -228.513248628     A.U. after    4 cycles
 SCF Done:  E(RB3LYP) =  -228.513248628     A.U. after    3 cycles
 SCF Done:  E(RB3LYP) =  -228.513248628     A.U. after    4 cycles
 SCF Done:  E(RB3LYP) =  -228.513248628     A.U. after    4 cycles
 Optimization completed.
    -- Stationary point found.

 1\1\GINC-BARREL\FOpt\RB3LYP\CC-pVDZ\C2H3O2(1-)\FLORIAN\05-Nov-2020\0\\
 # b3lyp/cc-pvdz opt=(verytight, maxcycle=200) density=current\\initial
  opt of coordinates\\-1,1\C,0.0573525098,1.1951540931,-0.0317585221\H,
 0.1970531267,0.1019016992,-0.1000864745\H,0.5839143311,1.5749266524,0.
 864823062\H,-1.0157039727,1.4167078048,0.1257761868\C,0.5774079386,1.9
 448924836,-1.3178961241\O,0.4377934073,3.1931933637,-1.2828909411\O,1.
 0643158163,1.214092512,-2.2153910048\\Version=ES64L-G09RevD.01\State=1
 -A\HF=-228.5132486\RMSD=2.819e-09\RMSF=3.704e-06\Dipole=-0.3767258,-0.

 Normal termination of Gaussian 09 at Thu Nov  5 15:02:01 2020.
 Gaussian 09:  ES64L-G09RevD.01 24-Apr-2013

 ----------------------------------
 # b3lyp/cc-pvdz freq geom=allcheck
 ----------------------------------

 Structure from the checkpoint file:  "oac.chk"
 --------------------------
 initial opt of coordinates
 --------------------------
 Charge = -1 Multiplicity = 1

                         Standard orientation:
 ---------------------------------------------------------------------
 Center     Atomic      Atomic             Coordinates (Angstroms)
 Number     Number       Type             X           Y           Z
 ---------------------------------------------------------------------
      1          6           0       -1.354900    0.052133    0.000000
      2          1           0       -1.737731    1.087906   -0.000022
      3          1           0       -1.750440   -0.483054   -0.884577
      4          1           0       -1.750436   -0.483012    0.884604
      5          6           0        0.221112   -0.001717   -0.000001
      6          8           0        0.700629   -1.163197    0.000000
      7          8           0        0.804538    1.110155    0.000000
 ---------------------------------------------------------------------

 SCF Done:  E(RB3LYP) =  -228.513248628     A.U. after   14 cycles

 The electronic state is 1-A.
 Alpha  occ. eigenvalues --  -18.84143 -18.83872 -10.04146  -9.98580  -0.78200
 Alpha  occ. eigenvalues --   -0.69791  -0.50644  -0.27309  -0.22281  -0.21551
 Alpha  occ. eigenvalues --   -0.19029  -0.15482  -0.13273  -0.01060   0.00005
 Alpha  occ. eigenvalues --    0.00690
 Alpha virt. eigenvalues --    0.24622   0.27123   0.30321   0.33394   0.41934
 Alpha virt. eigenvalues --    0.51700   0.56211   0.63818   0.70452   0.72297
 Alpha virt. eigenvalues --    0.74840   0.78586   0.81846   0.82320   0.84068

 Mulliken charges:
               1
     1  C   -0.025094
     2  H   -0.054509
     3  H   -0.035551
     4  H   -0.035550
     5  C    0.037455
     6  O   -0.448133
     7  O   -0.438618
 Sum of Mulliken charges =  -1.00000

 Dipole moment (field-independent basis, Debye):
    X=             -2.8799    Y=              0.0706    Z=              0.0000  Tot=              2.8808
 Quadrupole moment (field-independent basis, Debye-Ang):
   XX=            -31.2473   YY=            -33.3773   ZZ=            -24.4891
   XY=              0.0287   XZ=              0.0000   YZ=              0.0000

  Exact polarizability:  33.556   0.082  34.184   0.000   0.000  21.731
 Approx polarizability:  42.380   1.131  59.402   0.000   0.000  29.400

                      1                      2                      3
                      A                      A                      A
 Frequencies --     39.7544               417.5913               604.1190
 Red. masses --      1.0858                 2.8280                 2.1294
 Frc consts  --      0.0010                 0.2906                 0.4579
 IR Inten    --      0.6599                 0.7698                 4.1825

                      4                      5                      6
                      A                      A                      A
 Frequencies --    611.4828               855.6113               963.7589
 Red. masses --      5.1765                 7.9246                 1.5031
 Frc consts  --      1.1404                 3.4181                 0.8226
 IR Inten    --      3.3555                79.4928                 7.2178

                      7                      8                      9
                      A                      A                      A
 Frequencies --   1005.1939              1280.5825              1359.7423
 Red. masses --      2.0978                 1.3014                 8.5821
 Frc consts  --      1.2488                 1.2575                 9.3488
 IR Inten    --      3.3839                 1.1548               295.2611

                     10                     11                     12
                      A                      A                      A
 Frequencies --   1429.5450              1441.1376              1743.8185
 Red. masses --      1.0750                 1.0539                10.7512
 Frc consts  --      1.2943                 1.2896                19.2624
 IR Inten    --      9.7069                 0.2637               416.0506

                     13                     14                     15
                      A                      A                      A
 Frequencies --   2976.6525              3041.1461              3065.0735
 Red. masses --      1.0327                 1.0995                 1.1042
 Frc consts  --      5.3911                 5.9912                 6.1122
 IR Inten    --     51.5680                79.3249                95.7690

 - Thermochemistry -
 -------------------
 Temperature   298.150 Kelvin.  Pressure   1.00000 Atm.
 Atom     1 has atomic number  6 and mass  12.00000

 Molecular mass:    59.01330 amu.
 Principal axes and moments of inertia in atomic units:
                           1         2         3
     Eigenvalues --   159.34278 182.72194 330.79981
           X            0.99949  -0.03180   0.00000
           Y            0.03180   0.99949   0.00000
           Z            0.00000   0.00000   1.00000
 This molecule is an asymmetric top.
 Rotational symmetry number  1.
 Rotational temperatures (Kelvin)      0.54357     0.47402     0.26183
 Rotational constants (GHZ):          11.32616     9.87698     5.45569
 Zero-point vibrational energy     124622.2 (Joules/Mol)
                                   29.78543 (Kcal/Mol)
 Warning -- explicit consideration of   4 degrees of freedom as
           vibrations may cause significant error
 Vibrational temperatures:     57.20   600.82   869.19   879.79  1231.03
          (Kelvin)           1386.63  1446.25  1842.47  1956.36  2056.79
                             2073.47  2508.96  4282.73  4375.53  4409.95

 Zero-point correction=                           0.047466 (Hartree/Particle)
 Thermal correction to Energy=                    0.051937
 Thermal correction to Enthalpy=                  0.052881
 Thermal correction to Gibbs Free Energy=         0.019896
 Sum of electronic and zero-point Energies=           -228.465783
 Sum of electronic and thermal Energies=              -228.461312
 Sum of electronic and thermal Enthalpies=            -228.460367
 Sum of electronic and thermal Free Energies=         -228.493353

                     E (Thermal)             CV                S
                      KCal/Mol        Cal/Mol-Kelvin    Cal/Mol-Kelvin
 Total                   32.591             13.257             69.423
 Electronic               0.000              0.000              0.000
 Translational            0.889              2.981             38.146
 Rotational               0.889              2.981             23.781
 Vibrational             30.814              7.296              7.497
 Vibration     1          0.594              1.981              5.271
 Vibration     2          0.781              1.432              0.900
 Vibration     3          0.963              1.023              0.443
 Vibration     4          0.971              1.008              0.430

 Optimization completed.
    -- Stationary point found.

 1\1\GINC-BARREL\Freq\RB3LYP\CC-pVDZ\C2H3O2(1-)\FLORIAN\05-Nov-2020\0\\
 # b3lyp/cc-pvdz freq geom=allcheck\\initial opt of coordinates\\-1,1\C
 ,0.0573525098,1.1951540931,-0.0317585221\H,0.1970531267,0.1019016992,-
 0.1000864745\H,0.5839143311,1.5749266524,0.864823062\H,-1.0157039727,1
 .4167078048,0.1257761868\C,0.5774079386,1.9448924836,-1.3178961241\O,0
 .4377934073,3.1931933637,-1.2828909411\O,1.0643158163,1.214092512,-2.2
 153910048\\Version=ES64L-G09RevD.01\State=1-A\HF=-228.5132486\RMSD=4.9
 32e-09\RMSF=3.704e-06\ZeroPoint=0.0474661\Thermal=0.051937\Dipole=-0.3

 Normal termination of Gaussian 09 at Thu Nov  5 15:02:13 2020.
