 Gaussian 09, Revision D.01,

 ---------------------------------------------------------
 # b3lyp/cc-pvdz opt=(tight, maxcycle=200) density=current
 ---------------------------------------------------------

 -----------------
 opt of oac coords
 -----------------
 Symbolic Z-matrix:
 Charge = -1 Multiplicity = 1

 SCF Done:  E(RB3LYP) =  -228.508549614     A.U. after   14 cycles
 SCF Done:  E(RB3LYP) =  -228.512966321     A.U. after   12 cycles
 SCF Done:  E(RB3LYP) =  -228.513230318     A.U. after   11 cycles
 SCF Done:  E(RB3LYP) =  -228.513246235     A.U. after    9 cycles
 SCF Done:  E(RB3LYP) =  -228.513169615     A.U. after   10 cycles
 SCF Done:  E(RB3LYP) =  -228.513248506     A.U. after   10 cycles
 SCF Done:  E(RB3LYP) =  -228.513248626     A.U. after    7 cycles
 SCF Done:  E(RB3LYP) =  -228.513248629     A.U. after    5 cycles
 Optimization completed.
    -- Stationary point found.

 1\1\GINC-BARREL\FOpt\RB3LYP\CC-pVDZ\C2H3O2(1-)\FLORIAN\19-Nov-2020\0\\
 # b3lyp/cc-pvdz opt=(tight, maxcycle=200) density=current\\opt of oac
 coords\\-1,1\C,-0.5141853251,0.459860145,0.013691741\H,-0.9250499762,0
 .8652599532,0.9550953217\H,-0.8950323626,-0.5684424367,-0.1376407151\H
 ,-0.8950334873,1.0564882258,-0.8373909537\C,1.0627086279,0.4555121404,
 0.0035930753\O,1.615708998,0.901383273,1.0389825004\O,1.5736035253,0.0
 014486993,-1.0508209697\\Version=ES64L-G09RevD.01\State=1-A\HF=-228.51
 32486\RMSD=8.325e-09\RMSF=4.157e-06\Dipole=-1.1333697,-0.0011911,-0.00

 Normal termination of Gaussian 09 at Thu Nov 19 17:27:43 2020.
 Gaussian 09:  ES64L-G09RevD.01 24-Apr-2013

 ----------------------------------
 # b3lyp/cc-pvdz freq geom=allcheck
 ----------------------------------

 Structure from the checkpoint file:  "oac.chk"
 -----------------
 opt of oac coords
 -----------------
 Charge = -1 Multiplicity = 1

                         Standard orientation:
 ---------------------------------------------------------------------
 Center     Atomic      Atomic             Coordinates (Angstroms)
 Number     Number       Type             X           Y           Z
 ---------------------------------------------------------------------
      1          6           0       -1.354898    0.052148    0.000000
      2          1           0       -1.737743    1.087922   -0.000002
      3          1           0       -1.750442   -0.483000    0.884599
      4          1           0       -1.750442   -0.483004   -0.884596
      5          6           0        0.221114   -0.001716    0.000000
      6          8           0        0.804559    1.110144    0.000000
      7          8           0        0.700607   -1.163208    0.000000
 ---------------------------------------------------------------------

 SCF Done:  E(RB3LYP) =  -228.513248629     A.U. after   14 cycles

 The electronic state is 1-A.
 Alpha  occ. eigenvalues --  -18.84143 -18.83872 -10.04146  -9.98580  -0.78200
 Alpha  occ. eigenvalues --   -0.69791  -0.50644  -0.27309  -0.22281  -0.21551
 Alpha  occ. eigenvalues --   -0.19029  -0.15482  -0.13273  -0.01060   0.00005
 Alpha  occ. eigenvalues --    0.00690
 Alpha virt. eigenvalues --    0.24622   0.27123   0.30321   0.33394   0.41934
 Alpha virt. eigenvalues --    0.51700   0.56210   0.63818   0.70452   0.72297
 Alpha virt. eigenvalues --    0.74840   0.78586   0.81846   0.82320   0.84068

 Mulliken charges:
               1
     1  C   -0.025095
     2  H   -0.054513
     3  H   -0.035549
     4  H   -0.035549
     5  C    0.037457
     6  O   -0.438616
     7  O   -0.448134
 Sum of Mulliken charges =  -1.00000

 Dipole moment (field-independent basis, Debye):
    X=             -2.8799    Y=              0.0707    Z=              0.0000  Tot=              2.8807
 Quadrupole moment (field-independent basis, Debye-Ang):
   XX=            -31.2473   YY=            -33.3774   ZZ=            -24.4890
   XY=              0.0286   XZ=              0.0000   YZ=              0.0000

  Exact polarizability:  33.556   0.082  34.184   0.000   0.000  21.731
 Approx polarizability:  42.380   1.131  59.402   0.000   0.000  29.400

                      1                      2                      3
                      A                      A                      A
 Frequencies --     39.7944               417.5917               604.1274
 Red. masses --      1.0858                 2.8280                 2.1295
 Frc consts  --      0.0010                 0.2906                 0.4579
 IR Inten    --      0.6599                 0.7701                 4.1827

                      4                      5                      6
                      A                      A                      A
 Frequencies --    611.4816               855.6104               963.7586
 Red. masses --      5.1765                 7.9246                 1.5031
 Frc consts  --      1.1404                 3.4181                 0.8226
 IR Inten    --      3.3554                79.4944                 7.2171

                      7                      8                      9
                      A                      A                      A
 Frequencies --   1005.1970              1280.5920              1359.7412
 Red. masses --      2.0977                 1.3015                 8.5810
 Frc consts  --      1.2488                 1.2575                 9.3476
 IR Inten    --      3.3837                 1.1570               295.2591

                     10                     11                     12
                      A                      A                      A
 Frequencies --   1429.5404              1441.1490              1743.8179
 Red. masses --      1.0750                 1.0539                10.7513
 Frc consts  --      1.2943                 1.2897                19.2625
 IR Inten    --      9.7070                 0.2637               416.0504

                     13                     14                     15
                      A                      A                      A
 Frequencies --   2976.6431              3041.1556              3065.0242
 Red. masses --      1.0327                 1.0995                 1.1042
 Frc consts  --      5.3911                 5.9913                 6.1120
 IR Inten    --     51.5699                79.3239                95.7799

 - Thermochemistry -
 -------------------
 Temperature   298.150 Kelvin.  Pressure   1.00000 Atm.
 Atom     1 has atomic number  6 and mass  12.00000

 Molecular mass:    59.01330 amu.
 Principal axes and moments of inertia in atomic units:
                           1         2         3
     Eigenvalues --   159.34280 182.72229 330.80001
           X            0.99949  -0.03183   0.00000
           Y            0.03183   0.99949   0.00000
           Z            0.00000   0.00000   1.00000
 This molecule is an asymmetric top.
 Rotational symmetry number  1.
 Rotational temperatures (Kelvin)      0.54357     0.47402     0.26183
 Rotational constants (GHZ):          11.32615     9.87696     5.45569
 Zero-point vibrational energy     124622.3 (Joules/Mol)
                                   29.78545 (Kcal/Mol)
 Warning -- explicit consideration of   4 degrees of freedom as
           vibrations may cause significant error
 Vibrational temperatures:     57.26   600.82   869.20   879.78  1231.03
          (Kelvin)           1386.63  1446.25  1842.48  1956.36  2056.79
                             2073.49  2508.96  4282.72  4375.54  4409.88

 Zero-point correction=                           0.047466 (Hartree/Particle)
 Thermal correction to Energy=                    0.051937
 Thermal correction to Enthalpy=                  0.052881
 Thermal correction to Gibbs Free Energy=         0.019897
 Sum of electronic and zero-point Energies=           -228.465782
 Sum of electronic and thermal Energies=              -228.461312
 Sum of electronic and thermal Enthalpies=            -228.460367
 Sum of electronic and thermal Free Energies=         -228.493352

                     E (Thermal)             CV                S
                      KCal/Mol        Cal/Mol-Kelvin    Cal/Mol-Kelvin
 Total                   32.591             13.257             69.421
 Electronic               0.000              0.000              0.000
 Translational            0.889              2.981             38.146
 Rotational               0.889              2.981             23.781
 Vibrational             30.813              7.296              7.495
 Vibration     1          0.594              1.981              5.269
 Vibration     2          0.781              1.432              0.900
 Vibration     3          0.963              1.023              0.443
 Vibration     4          0.971              1.008              0.430

 Optimization completed.
    -- Stationary point found.

 1\1\GINC-BARREL\Freq\RB3LYP\CC-pVDZ\C2H3O2(1-)\FLORIAN\19-Nov-2020\0\\
 # b3lyp/cc-pvdz freq geom=allcheck\\opt of oac coords\\-1,1\C,-0.51418
 53251,0.459860145,0.013691741\H,-0.9250499762,0.8652599532,0.955095321
 7\H,-0.8950323626,-0.5684424367,-0.1376407151\H,-0.8950334873,1.056488
 2258,-0.8373909537\C,1.0627086279,0.4555121404,0.0035930753\O,1.615708
 998,0.901383273,1.0389825004\O,1.5736035253,0.0014486993,-1.0508209697
 \\Version=ES64L-G09RevD.01\State=1-A\HF=-228.5132486\RMSD=4.935e-09\RM
 SF=4.155e-06\ZeroPoint=0.0474661\Thermal=0.051937\Dipole=-1.13337,-0.0

 Normal termination of Gaussian 09 at Thu Nov 19 17:27:55 2020.
