 Gaussian 09, Revision D.01,

 ---------------------------------------------------------
 # b3lyp/cc-pvdz opt=(tight, maxcycle=200) density=current
 ---------------------------------------------------------

 im1h opt of inital coordinates generqated with gv, sorted as in charmm
  rtf file->needed for gaupy sorting atomnames
 ----------------------------------------------------------------------
 Symbolic Z-matrix:
 Charge =  1 Multiplicity = 1

 SCF Done:  E(RB3LYP) =  -265.909082231     A.U. after   14 cycles
 SCF Done:  E(RB3LYP) =  -265.925480228     A.U. after   12 cycles
 SCF Done:  E(RB3LYP) =  -265.925884565     A.U. after   11 cycles
 SCF Done:  E(RB3LYP) =  -265.925969093     A.U. after   10 cycles
 SCF Done:  E(RB3LYP) =  -265.926015660     A.U. after    9 cycles
 SCF Done:  E(RB3LYP) =  -265.926055906     A.U. after    9 cycles
 SCF Done:  E(RB3LYP) =  -265.926122456     A.U. after   10 cycles
 SCF Done:  E(RB3LYP) =  -265.926239474     A.U. after   11 cycles
 SCF Done:  E(RB3LYP) =  -265.926300524     A.U. after   10 cycles
 SCF Done:  E(RB3LYP) =  -265.926310048     A.U. after   10 cycles
 SCF Done:  E(RB3LYP) =  -265.926310594     A.U. after    7 cycles
 SCF Done:  E(RB3LYP) =  -265.926310649     A.U. after    6 cycles
 SCF Done:  E(RB3LYP) =  -265.926310656     A.U. after    5 cycles
 SCF Done:  E(RB3LYP) =  -265.926310656     A.U. after    4 cycles
 Optimization completed.
    -- Stationary point found.

 1\1\GINC-BARREL\FOpt\RB3LYP\CC-pVDZ\C4H7N2(1+)\FLORIAN\15-Oct-2020\0\\
 # b3lyp/cc-pvdz opt=(tight, maxcycle=200) density=current\\im1h opt of
  inital coordinates generqated with gv, sorted as in charmm rtf file->
 needed for gaupy sorting atomnames\\1,1\C,-3.9680128373,0.6042276961,-
 0.0005516962\N,-2.5646270411,0.1646577055,-0.0000404779\C,-2.132742826
 6,-1.148641401,-0.1040769705\C,-0.7671417311,-1.1316318029,-0.06424711
 02\N,-0.3995860818,0.1931071171,0.0632333383\H,0.5524874073,0.54507299
 47,0.121092465\C,-1.4964210243,0.9619224063,0.1004512046\H,-3.99966880

 Normal termination of Gaussian 09 at Thu Oct 15 10:34:50 2020.
 Gaussian 09:  ES64L-G09RevD.01 24-Apr-2013

 ----------------------------------
 # b3lyp/cc-pvdz freq geom=allcheck
 ----------------------------------

 ----------------------------------------------------------------------
 im1h opt of inital coordinates generqated with gv, sorted as in charmm
  rtf file->needed for gaupy sorting atomnames
 ----------------------------------------------------------------------
 Charge =  1 Multiplicity = 1

                         Standard orientation:
 ---------------------------------------------------------------------
 Center     Atomic      Atomic             Coordinates (Angstroms)
 Number     Number       Type             X           Y           Z
 ---------------------------------------------------------------------
      1          6           0       -2.113789   -0.007169    0.000001
      2          7           0       -0.643203    0.002356   -0.000002
      3          6           0        0.154120    1.136542    0.000000
      4          6           0        1.454954    0.718723    0.000000
      5          7           0        1.418722   -0.661484    0.000002
      6          1           0        2.226106   -1.279385   -0.000008
      7          6           0        0.144909   -1.077308   -0.000001
      8          1           0       -2.463537   -1.046165    0.000016
      9          1           0       -2.480139    0.505006    0.899722
     10          1           0       -2.480142    0.504979   -0.899735
     11          1           0       -0.267823    2.136797   -0.000005
     12          1           0        2.384484    1.279043    0.000001
     13          1           0       -0.188747   -2.111107    0.000000
 ---------------------------------------------------------------------

 SCF Done:  E(RB3LYP) =  -265.926310656     A.U. after   14 cycles

 The electronic state is 1-A.
 Alpha  occ. eigenvalues --  -14.61082 -14.60712 -10.47565 -10.42581 -10.42098
 Alpha  occ. eigenvalues --  -10.41058  -1.25765  -1.13308  -0.97685  -0.92963
 Alpha  occ. eigenvalues --   -0.83676  -0.80445  -0.77526  -0.68109  -0.67711
 Alpha  occ. eigenvalues --   -0.65358  -0.64568  -0.62830  -0.60467  -0.58373
 Alpha  occ. eigenvalues --   -0.50405  -0.44973
 Alpha virt. eigenvalues --   -0.20111  -0.16423  -0.12506  -0.09661  -0.07299
 Alpha virt. eigenvalues --   -0.05945  -0.05051  -0.03452  -0.03033  -0.01634
 Alpha virt. eigenvalues --    0.01638   0.03245   0.09113   0.10763   0.18460

 Mulliken charges:
               1
     1  C    0.062016
     2  N   -0.149921
     3  C    0.093624
     4  C    0.094447
     5  N   -0.024525
     6  H    0.155977
     7  C    0.231603
     8  H    0.080520
     9  H    0.099529
    10  H    0.099529
    11  H    0.072305
    12  H    0.080638
    13  H    0.104258
 Sum of Mulliken charges =   1.00000

 Dipole moment (field-independent basis, Debye):
    X=              0.7017    Y=             -1.2923    Z=              0.0000  Tot=              1.4706
 Quadrupole moment (field-independent basis, Debye-Ang):
   XX=            -15.3894   YY=            -22.8116   ZZ=            -35.4275
   XY=             -1.9281   XZ=              0.0000   YZ=              0.0000

  Exact polarizability:  63.033   0.255  54.951   0.000   0.000  27.939
 Approx polarizability:  92.635  -1.590  88.027   0.000   0.000  41.144

                      1                      2                      3
                      A                      A                      A
 Frequencies --     91.2774               240.8852               353.4721
 Red. masses --      1.0780                 3.0461                 2.6138
 Frc consts  --      0.0053                 0.1041                 0.1924
 IR Inten    --      0.2581                 5.3685                 0.9314

                      4                      5                      6
                      A                      A                      A
 Frequencies --    618.4301               635.9699               660.2053
 Red. masses --      3.1337                 2.8954                 4.4915
 Frc consts  --      0.7061                 0.6900                 1.1534
 IR Inten    --     29.4130                21.6409                 4.8218

                      7                      8                      9
                      A                      A                      A
 Frequencies --    688.9647               755.0409               836.4835
 Red. masses --      1.1911                 1.2332                 1.3842
 Frc consts  --      0.3331                 0.4142                 0.5707
 IR Inten    --     68.8433                38.0711                24.4062

                     10                     11                     12
                      A                      A                      A
 Frequencies --    882.0498               927.3032              1019.8633
 Red. masses --      1.3535                 5.0349                 2.6703
 Frc consts  --      0.6204                 2.5509                 1.6364
 IR Inten    --      0.2022                 1.6244                 4.8607

                     13                     14                     15
                      A                      A                      A
 Frequencies --   1083.0666              1099.7275              1116.7191
 Red. masses --      1.4343                 1.5605                 1.5788
 Frc consts  --      0.9913                 1.1120                 1.1600
 IR Inten    --      6.7340                24.2895                 9.4951

                     16                     17                     18
                      A                      A                      A
 Frequencies --   1136.2079              1166.0818              1289.5258
 Red. masses --      1.3337                 1.2525                 1.7289
 Frc consts  --      1.0145                 1.0034                 1.6938
 IR Inten    --      0.0600                12.8033                 6.6723

                     19                     20                     21
                      A                      A                      A
 Frequencies --   1328.0776              1404.2628              1437.6654
 Red. masses --      2.9659                 2.8383                 1.1858
 Frc consts  --      3.0821                 3.2977                 1.4441
 IR Inten    --     18.4737                 5.1219                 1.4918

                     22                     23                     24
                      A                      A                      A
 Frequencies --   1453.6195              1474.2387              1484.8269
 Red. masses --      1.0349                 3.0076                 1.1956
 Frc consts  --      1.2884                 3.8512                 1.5531
 IR Inten    --     17.7169                 5.9454                12.2041

                     25                     26                     27
                      A                      A                      A
 Frequencies --   1583.9476              1625.8182              3073.7480
 Red. masses --      3.9597                 3.7734                 1.0324
 Frc consts  --      5.8532                 5.8767                 5.7470
 IR Inten    --     39.0746                23.2795                 1.5936

                     28                     29                     30
                      A                      A                      A
 Frequencies --   3166.2626              3183.6121              3285.6470
 Red. masses --      1.1084                 1.1075                 1.0950
 Frc consts  --      6.5468                 6.6136                 6.9647
 IR Inten    --      0.1283                 0.0433                24.0993

                     31                     32                     33
                      A                      A                      A
 Frequencies --   3289.7554              3304.7967              3601.5674
 Red. masses --      1.1031                 1.1124                 1.0850
 Frc consts  --      7.0341                 7.1582                 8.2920
 IR Inten    --     46.1884                16.5974               211.3283

 - Thermochemistry -
 -------------------
 Temperature   298.150 Kelvin.  Pressure   1.00000 Atm.
 Atom     1 has atomic number  6 and mass  12.00000

 Molecular mass:    83.06092 amu.
 Principal axes and moments of inertia in atomic units:
                           1         2         3
     Eigenvalues --   204.96040 515.61815 708.92480
           X            1.00000   0.00118   0.00000
           Y           -0.00118   1.00000   0.00000
           Z            0.00000   0.00000   1.00000
 This molecule is an asymmetric top.
 Rotational symmetry number  1.
 Rotational temperatures (Kelvin)      0.42259     0.16798     0.12218
 Rotational constants (GHZ):           8.80532     3.50015     2.54574
 Zero-point vibrational energy     294874.2 (Joules/Mol)
                                   70.47663 (Kcal/Mol)
 Warning -- explicit consideration of   4 degrees of freedom as
           vibrations may cause significant error
 Vibrational temperatures:    131.33   346.58   508.57   889.78   915.02
          (Kelvin)            949.89   991.27  1086.33  1203.51  1269.07
                             1334.18  1467.35  1558.29  1582.26  1606.71
                             1634.75  1677.73  1855.34  1910.81  2020.42
                             2068.48  2091.43  2121.10  2136.33  2278.94
                             2339.19  4422.43  4555.54  4580.50  4727.31
                             4733.22  4754.86  5181.85

 Zero-point correction=                           0.112312 (Hartree/Particle)
 Thermal correction to Energy=                    0.117766
 Thermal correction to Enthalpy=                  0.118711
 Thermal correction to Gibbs Free Energy=         0.083423
 Sum of electronic and zero-point Energies=           -265.813999
 Sum of electronic and thermal Energies=              -265.808544
 Sum of electronic and thermal Enthalpies=            -265.807600
 Sum of electronic and thermal Free Energies=         -265.842887

                     E (Thermal)             CV                S
                      KCal/Mol        Cal/Mol-Kelvin    Cal/Mol-Kelvin
 Total                   73.900             19.793             74.268
 Electronic               0.000              0.000              0.000
 Translational            0.889              2.981             39.165
 Rotational               0.889              2.981             25.819
 Vibrational             72.122             13.832              9.285
 Vibration     1          0.602              1.955              3.633
 Vibration     2          0.658              1.778              1.796
 Vibration     3          0.730              1.568              1.151
 Vibration     4          0.978              0.993              0.419

 Optimization completed.
    -- Stationary point found.

 1\1\GINC-BARREL\Freq\RB3LYP\CC-pVDZ\C4H7N2(1+)\FLORIAN\15-Oct-2020\0\\
 # b3lyp/cc-pvdz freq geom=allcheck\\im1h opt of inital coordinates gen
 erqated with gv, sorted as in charmm rtf file->needed for gaupy sortin
 g atomnames\\1,1\C,-3.9680128373,0.6042276961,-0.0005516962\N,-2.56462
 70411,0.1646577055,-0.0000404779\C,-2.1327428266,-1.148641401,-0.10407
 69705\C,-0.7671417311,-1.1316318029,-0.0642471102\N,-0.3995860818,0.19
 31071171,0.0632333383\H,0.5524874073,0.5450729947,0.121092465\C,-1.496
 4210243,0.9619224063,0.1004512046\H,-3.9996688055,1.6958717342,0.09509

 Normal termination of Gaussian 09 at Thu Oct 15 10:35:49 2020.
